ITEM: TIMESTEP
1
ITEM: NUMBER OF ATOMS
8
ITEM: BOX BOUNDS
0 2
0 2
0 2
ITEM: ATOMS id type x y z
1 119 0 0 0
2 120 1 0 0
3 559 0 1 0
4 130 1 1 0
5 140 0 0 1
6 150 1 0 1
7 160 0 1 1
8 558 1 1 1
